title       = Production MD
integrator  = md
nsteps      = 10000000
dt          = 0.002
nstxout     = 0
nstvout     = 0
nstfout     = 0
nstxout-compressed = 5000
compressed-x-grps  = System
nstenergy   = 5000
nstlog      = 5000
continuation    = no
constraint_algorithm = lincs
constraints     = h-bonds
cutoff-scheme   = Verlet
nstlist     = 20
rcoulomb    = 1.0
rvdw        = 1.0
coulombtype = PME
DispCorr    = no
tcoupl      = V-rescale
tc-grps     = Protein Non-Protein
tau_t       = 0.1     0.1
ref_t       = 300     300
pcoupl      = Parrinello-Rahman
pcoupltype  = isotropic
tau_p       = 2.0
ref_p       = 1.0
compressibility = 4.5e-5
pbc         = xyz
gen_vel     = yes
gen_seed    = -1
